 &FCI NORB=  20,NELEC= 4,MS2=0,
  ORBSYM=1,5,3,7,5,3,1,7,1,1,2,5,3,6,4,8,5,7,3,7
  ISYM=1,
 &END
 0.4073782737630554    1    1    1    1
 0.1111921968501372    2    1    2    1
 0.3776681295354474    2    2    1    1
 0.367737314559742    2    2    2    2
 0.08974845820587435    3    1    3    1
 0.04703427455071438    3    2    3    2
 0.3540228015408286    3    3    1    1
 0.3307219424835841    3    3    2    2
 0.3344550731238792    3    3    3    3
 0.04507140305061012    4    1    3    2
 0.04320423351584967    4    1    4    1
 0.07650668201788562    4    2    3    1
 0.07429389378669506    4    2    4    2
 0.08332774825523789    4    3    2    1
 0.07584411414358808    4    3    4    3
 0.3191571860566755    4    4    1    1
 0.3128700002272249    4    4    2    2
 0.3023764301882158    4    4    3    3
 0.2907076536726722    4    4    4    4
 -0.0433557632602897    5    1    2    1
 -0.02742680993398618    5    1    4    3
 0.03478502709276258    5    1    5    1
 -0.0832269694128116    5    2    1    1
 -0.06948247047348964    5    2    2    2
 -0.06101816943496433    5    2    3    3
 -0.04507819347701238    5    2    4    4
 0.0485069905164838    5    2    5    2
 -0.01817882497168291    5    3    3    2
 -0.01703705003942958    5    3    4    1
 0.01996290284264777    5    3    5    3
 -0.0180483958360782    5    4    3    1
 -0.01166036756918407    5    4    4    2
 0.02402440072909378    5    4    5    4
 0.3255108064580035    5    5    1    1
 0.3177180555623281    5    5    2    2
 0.2911541333275209    5    5    3    3
 0.2784866676228648    5    5    4    4
 -0.05088858276754057    5    5    5    2
 0.2903974076033771    5    5    5    5
 -0.04551321352340444    6    1    3    1
 -0.03859649143553592    6    1    4    2
 0.02615016862189758    6    1    5    4
 0.04184931321863351    6    1    6    1
 -0.03088679258514062    6    2    3    2
 -0.02925805459404681    6    2    4    1
 0.02475117312903018    6    2    5    3
 0.03376296093109361    6    2    6    2
 -0.08437138794499482    6    3    1    1
 -0.07487859166034087    6    3    2    2
 -0.05901190114975727    6    3    3    3
 -0.04816560256623076    6    3    4    4
 0.04243975537828989    6    3    5    2
 -0.05841238516313401    6    3    5    5
 0.04857122130608574    6    3    6    3
 -0.03667114367877384    6    4    2    1
 -0.02203009601970455    6    4    4    3
 0.02946891412662948    6    4    5    1
 0.03025017328057643    6    4    6    4
 0.04352201509414506    6    5    3    2
 0.04161084896761151    6    5    4    1
 -0.02092975006651217    6    5    5    3
 -0.03330761286423378    6    5    6    2
 0.04735720216634361    6    5    6    5
 0.342631185778283    6    6    1    1
 0.3232584726993714    6    6    2    2
 0.3173202644492107    6    6    3    3
 0.2905022396411988    6    6    4    4
 -0.06696179386617455    6    6    5    2
 0.2902814240619658    6    6    5    5
 -0.06223566579806908    6    6    6    3
 0.3162435542884713    6    6    6    6
 0.06983594631738044    7    1    1    1
 0.06122210009292266    7    1    2    2
 0.04771438037151007    7    1    3    3
 0.03800163846166842    7    1    4    4
 -0.04086580634228239    7    1    5    2
 0.04760375898427752    7    1    5    5
 -0.03995068509070458    7    1    6    3
 0.05522323135385668    7    1    6    6
 0.03887554180648732    7    1    7    1
 0.03313076101806627    7    2    2    1
 0.01835341134614013    7    2    4    3
 -0.03169606671396263    7    2    5    1
 -0.0274938541026788    7    2    6    4
 0.03033200380498938    7    2    7    2
 0.01064015309867402    7    3    3    1
 0.007978512467327181    7    3    4    2
 -0.02091034310427037    7    3    5    4
 -0.02540706184271469    7    3    6    1
 0.02301459109871115    7    3    7    3
 0.01015502476267636    7    4    3    2
 0.009342477534626826    7    4    4    1
 -0.017942647155813    7    4    5    3
 -0.02103984850307708    7    4    6    2
 0.01387501784894244    7    4    6    5
 0.01775420380368101    7    4    7    4
 -0.0878088825965631    7    5    2    1
 -0.06904066148381779    7    5    4    3
 0.03196862121249695    7    5    5    1
 0.02620965617458667    7    5    6    4
 -0.02365421733600595    7    5    7    2
 0.07905493175215826    7    5    7    5
 -0.07723150391223263    7    6    3    1
 -0.0684052878380664    7    6    4    2
 0.0163788563145274    7    6    5    4
 0.04113295161650193    7    6    6    1
 -0.01031667150813966    7    6    7    3
 0.07655507450083747    7    6    7    6
 0.3361290486841367    7    7    1    1
 0.3192180584978945    7    7    2    2
 0.3029093132270763    7    7    3    3
 0.280361218599356    7    7    4    4
 -0.05691411417317391    7    7    5    2
 0.2882892428734884    7    7    5    5
 -0.05688049973956262    7    7    6    3
 0.3004766005772443    7    7    6    6
 0.04650162645017036    7    7    7    1
 0.2982907069126427    7    7    7    7
 -0.03598576491872704    8    1    3    2
 -0.03413322456785443    8    1    4    1
 0.02632244926654836    8    1    5    3
 0.03628657202147634    8    1    6    2
 -0.03771733106125051    8    1    6    5
 -0.02139939284394426    8    1    7    4
 0.03964808471187993    8    1    8    1
 -0.05119792850707074    8    2    3    1
 -0.0445439010582071    8    2    4    2
 0.02863365039546249    8    2    5    4
 0.04324643473788823    8    2    6    1
 -0.0245164264001992    8    2    7    3
 0.04689937369944237    8    2    7    6
 0.04810628432448167    8    2    8    2
 -0.05007635163768832    8    3    2    1
 -0.03511993007993483    8    3    4    3
 0.03416132543240954    8    3    5    1
 0.03349218075207478    8    3    6    4
 -0.03035418227112353    8    3    7    2
 0.03746525499501457    8    3    7    5
 0.03937172816410395    8    3    8    3
 -0.09087676869681843    8    4    1    1
 -0.08091266749232935    8    4    2    2
 -0.06949526564343615    8    4    3    3
 -0.05417200116359466    8    4    4    4
 0.04590773784893749    8    4    5    2
 -0.06004708024776552    8    4    5    5
 0.04685839642897167    8    4    6    3
 -0.07132191557991258    8    4    6    6
 -0.03912051300036052    8    4    7    1
 -0.06362862661584015    8    4    7    7
 0.05158837284993712    8    4    8    4
 0.07410723641858206    8    5    3    1
 0.06983755360866867    8    5    4    2
 -0.01645185240399632    8    5    5    4
 -0.04388604370059012    8    5    6    1
 0.01448223965158553    8    5    7    3
 -0.07319130935459545    8    5    7    6
 -0.04804902912364385    8    5    8    2
 0.07516527886754226    8    5    8    5
 0.0931679452757488    8    6    2    1
 0.07788208930762262    8    6    4    3
 -0.0417949556948253    8    6    5    1
 -0.03403191216732348    8    6    6    4
 0.03309180563943594    8    6    7    2
 -0.08161351251510039    8    6    7    5
 -0.0472717096142602    8    6    8    3
 0.09408154263426634    8    6    8    6
 -0.04337508429254638    8    7    3    2
 -0.04147883054003292    8    7    4    1
 0.02086451393603684    8    7    5    3
 0.03337217912185717    8    7    6    2
 -0.04758540155465339    8    7    6    5
 -0.01395438805695393    8    7    7    4
 0.03766896037846466    8    7    8    1
 0.04789393513376071    8    7    8    7
 0.3421840952998011    8    8    1    1
 0.3298304116545103    8    8    2    2
 0.3133097945171749    8    8    3    3
 0.2951556718465563    8    8    4    4
 -0.06736584226755166    8    8    5    2
 0.2967446536103048    8    8    5    5
 -0.06895944158036839    8    8    6    3
 0.3135742389100044    8    8    6    6
 0.05903868749900949    8    8    7    1
 0.299270746927166    8    8    7    7
 -0.07367166730393374    8    8    8    4
 0.319744568157198    8    8    8    8
 -0.02055296560452611    9    1    1    1
 0.007255140912809255    9    1    2    2
 -0.02375443402308134    9    1    3    3
 0.0003648812427379693    9    1    4    4
 0.009216670756391236    9    1    5    2
 0.0002607037308341204    9    1    5    5
 0.007053058727532452    9    1    6    3
 -0.01595073815163036    9    1    6    6
 -0.005322616221336256    9    1    7    1
 -0.009956462114288252    9    1    7    7
 0.005234385536677648    9    1    8    4
 -0.005782414529064065    9    1    8    8
 0.04953706618851129    9    1    9    1
 0.05693833275456815    9    2    2    1
 0.03961392895283174    9    2    4    3
 -0.01365320621330603    9    2    5    1
 -0.01421339945039519    9    2    6    4
 0.01122682138602347    9    2    7    2
 -0.04208105988219468    9    2    7    5
 -0.01839532840798791    9    2    8    3
 0.04057261601358233    9    2    8    6
 0.05198340521007766    9    2    9    2
 -0.02522395629303771    9    3    3    1
 -0.007152340662136591    9    3    4    2
 0.006229851914360201    9    3    5    4
 0.01085630268254485    9    3    6    1
 -0.002801989521228278    9    3    7    3
 0.01713270806145679    9    3    7    6
 0.008156675509071343    9    3    8    2
 -0.01123091647243523    9    3    8    5
 0.03506991929403278    9    3    9    3
 0.01456603233702192    9    4    3    2
 0.0142060847688117    9    4    4    1
 -0.001727673250131328    9    4    5    3
 -0.008241031719386352    9    4    6    2
 0.01093382950027903    9    4    6    5
 0.0009222159277317528    9    4    7    4
 -0.008281811360150926    9    4    8    1
 -0.01142691332461295    9    4    8    7
 0.01860484068063753    9    4    9    4
 -0.005726276758748375    9    5    2    1
 -0.001798862396998581    9    5    4    3
 0.003167849780060997    9    5    5    1
 0.003067289911697436    9    5    6    4
 -0.004247565931471853    9    5    7    2
 0.003178935392610204    9    5    7    5
 0.002423356955951652    9    5    8    3
 -0.003635404720517752    9    5    8    6
 -0.01253668066007288    9    5    9    2
 0.008314056845903452    9    5    9    5
 0.008523870498789011    9    6    3    1
 -0.001089231442586384    9    6    4    2
 -0.001857853178186075    9    6    5    4
 -0.004913060623515123    9    6    6    1
 0.002656235978686248    9    6    7    3
 -0.004236402226122544    9    6    7    6
 -0.0006565640439816923    9    6    8    2
 0.001848296745428165    9    6    8    5
 -0.02106699187045009    9    6    9    3
 0.01639589117237631    9    6    9    6
 -0.003855794351165541    9    7    1    1
 0.003596404032139812    9    7    2    2
 -0.005183232188290186    9    7    3    3
 0.0002262694267965145    9    7    4    4
 -0.0008866453012854391    9    7    5    2
 3.054448739740466e-05    9    7    5    5
 0.002363057923913711    9    7    6    3
 -0.002292386964379378    9    7    6    6
 -0.0006524872458776739    9    7    7    1
 -0.0007356616997594136    9    7    7    7
 -0.0006164198023982329    9    7    8    4
 2.235474023632437e-05    9    7    8    8
 0.01700480660836913    9    7    9    1
 0.009325818293168947    9    7    9    7
 -0.006865957015902904    9    8    3    2
 -0.006718951574681455    9    8    4    1
 0.001606496423757468    9    8    5    3
 0.005791947482474171    9    8    6    2
 -0.005474834093546424    9    8    6    5
 -0.002129148264104711    9    8    7    4
 0.005128753015153464    9    8    8    1
 0.006028568432383388    9    8    8    7
 -0.01437726519652639    9    8    9    4
 0.01422448993183015    9    8    9    8
 0.4173446212769616    9    9    1    1
 0.3917886071957237    9    9    2    2
 0.3664735323536708    9    9    3    3
 0.3309290030668761    9    9    4    4
 -0.08426799090945783    9    9    5    2
 0.332110319450894    9    9    5    5
 -0.09120341221301349    9    9    6    3
 0.3491030358942103    9    9    6    6
 0.0740830975765987    9    9    7    1
 0.3381535764858131    9    9    7    7
 -0.09674766192310646    9    9    8    4
 0.3511915197820261    9    9    8    8
 -0.01503118706134757    9    9    9    1
 -0.003968193521734192    9    9    9    7
 0.4564941352843991    9    9    9    9
 -0.03059693799295814   10    1    1    1
 -0.02064706075768916   10    1    2    2
 0.002570359413839569   10    1    3    3
 0.006470837877718769   10    1    4    4
 0.01164215066580923   10    1    5    2
 -0.01422831007384325   10    1    5    5
 0.008257853554197029   10    1    6    3
 -0.004631317522220284   10    1    6    6
 -0.01226102037383959   10    1    7    1
 -0.01619342288462287   10    1    7    7
 0.003497267761391424   10    1    8    4
 -0.002083460362921048   10    1    8    8
 0.001704857787315954   10    1    9    1
 -0.0005585237598304762   10    1    9    7
 -0.02171622807914868   10    1    9    9
 0.04722117375901298   10    1   10    1
 0.0009514914881250735   10    2    2    1
 0.01902665458912614   10    2    4    3
 0.002242892060947166   10    2    5    1
 -0.00307533414311039   10    2    6    4
 -0.003373739062334268   10    2    7    2
 -0.003137030942528663   10    2    7    5
 -0.006826782873377737   10    2    8    3
 0.01330299470564448   10    2    8    6
 -0.00197708711378632   10    2    9    2
 0.002176138938862778   10    2    9    5
 0.03546988118821166   10    2   10    2
 0.0491923074649669   10    3    3    1
 0.04618428445846511   10    3    4    2
 -0.007679179083124078   10    3    5    4
 -0.02035517458550807   10    3    6    1
 0.002291712253205016   10    3    7    3
 -0.03963650677732463   10    3    7    6
 -0.02648429449726371   10    3    8    2
 0.03970733279076886   10    3    8    5
 -0.009422086673927318   10    3    9    3
 0.0009936431496100468   10    3    9    6
 0.04411335146013103   10    3   10    3
 0.03208466689151281   10    4    3    2
 0.03073609491677827   10    4    4    1
 -0.009957804193909851   10    4    5    3
 -0.01719641980989584   10    4    6    2
 0.02533532279290851   10    4    6    5
 0.003986549798882928   10    4    7    4
 -0.02103242559135701   10    4    8    1
 -0.02508352200797989   10    4    8    7
 0.01018202630119979   10    4    9    4
 -0.004056607712725304   10    4    9    8
 0.03469025123273096   10    4   10    4
 0.001212781504872346   10    5    2    1
 -0.00752480950642036   10    5    4    3
 -0.002091795985620144   10    5    5    1
 0.002913531502463739   10    5    6    4
 0.002229392082338231   10    5    7    2
 0.001871022564761808   10    5    7    5
 0.004529358159651267   10    5    8    3
 -0.007018210820404843   10    5    8    6
 0.001636750998055566   10    5    9    2
 -0.00109791682421523   10    5    9    5
 -0.01937456604074523   10    5   10    2
 0.01376419733849785   10    5   10    5
 -0.02163944044306184   10    6    3    1
 -0.02144695677263203   10    6    4    2
 0.006667608730256865   10    6    5    4
 0.01192985092779564   10    6    6    1
 -0.004298990885294329   10    6    7    3
 0.01924335111172987   10    6    7    6
 0.0154908119765209   10    6    8    2
 -0.0204830325322455   10    6    8    5
 0.002195951188078591   10    6    9    3
 0.0007155972884186254   10    6    9    6
 -0.02282766977736864   10    6   10    3
 0.01618003968686215   10    6   10    6
 -0.01671158695373509   10    7    1    1
 -0.01307386156547635   10    7    2    2
 -0.004952304839260597   10    7    3    3
 -0.003211787932074656   10    7    4    4
 0.006107652259947368   10    7    5    2
 -0.007703596017795553   10    7    5    5
 0.002418690934017819   10    7    6    3
 -0.005007188803387997   10    7    6    6
 -0.006639605234584021   10    7    7    1
 -0.007939192699938816   10    7    7    7
 0.001050467466831445   10    7    8    4
 -0.003479973426593174   10    7    8    8
 5.397641526215943e-05   10    7    9    1
 -0.0005453673200949349   10    7    9    7
 -0.01486537661080421   10    7    9    9
 0.01908936138146983   10    7   10    1
 0.01192255537484485   10    7   10    7
 -0.02201883371110829   10    8    3    2
 -0.02096539241070945   10    8    4    1
 0.01032784245438676   10    8    5    3
 0.01522675762838866   10    8    6    2
 -0.01948242810825015   10    8    6    5
 -0.00647394665043207   10    8    7    4
 0.01780453188771442   10    8    8    1
 0.01941818914070352   10    8    8    7
 -0.005509527660305223   10    8    9    4
 0.002473237470829955   10    8    9    8
 -0.02489564604661236   10    8   10    4
 0.02184424075589386   10    8   10    8
 -0.002868823437028805   10    9    1    1
 -0.00307256026315626   10    9    2    2
 -0.003644447953144702   10    9    3    3
 0.001911706990925129   10    9    4    4
 0.002198579908046827   10    9    5    2
 -0.00108641172532203   10    9    5    5
 -0.0003669701213694583   10    9    6    3
 -0.002148194053509456   10    9    6    6
 -0.001348742603373833   10    9    7    1
 -0.002449631474671457   10    9    7    7
 0.001301309882808641   10    9    8    4
 -0.000494729777744609   10    9    8    8
 0.000861380839570279   10    9    9    1
 -0.001177885189907897   10    9    9    7
 -0.004368452639259519   10    9    9    9
 0.001567089108978031   10    9   10    1
 0.001676966588470291   10    9   10    7
 0.01666221420615312   10    9   10    9
 0.4126173371219966   10   10    1    1
 0.3876419849139553   10   10    2    2
 0.3652788636495038   10   10    3    3
 0.3348207111911571   10   10    4    4
 -0.08837851439710305   10   10    5    2
 0.3289345497950737   10   10    5    5
 -0.08714024538423797   10   10    6    3
 0.3494738731509465   10   10    6    6
 0.07396874111063288   10   10    7    1
 0.3366819262123416   10   10    7    7
 -0.09656088356852337   10   10    8    4
 0.3524991287814707   10   10    8    8
 -0.01367575643315149   10   10    9    1
 -0.001099792419013536   10   10    9    7
 0.4216119245796465   10   10    9    9
 -0.0173798337816401   10   10   10    1
 -0.01615535531866969   10   10   10    7
 -0.002046093969746865   10   10   10    9
 0.4486942523676611   10   10   10   10
 0.04810776957969942   11    1   11    1
 0.03469356532688671   11    2   11    2
 0.02772176272560176   11    3   11    3
 0.0206508857936697   11    4   11    4
 -0.01420124409407438   11    5   11    2
 0.00919635969758942   11    5   11    5
 -0.01616511223424008   11    6   11    3
 0.01290271160382707   11    6   11    6
 0.01015032919498411   11    7   11    1
 0.006769018761539406   11    7   11    7
 -0.01647330773682013   11    8   11    4
 0.01592794549878668   11    8   11    8
 0.001055350348845242   11    9   11    1
 0.0007117683650415374   11    9   11    7
 0.01451176279462281   11    9   11    9
 0.0008333618305057959   11   10   11    1
 -8.478266782391736e-05   11   10   11    7
 -8.892487291383604e-05   11   10   11    9
 0.01526909181244885   11   10   11   10
 0.4091040547662209   11   11    1    1
 0.3844217421997015   11   11    2    2
 0.3600626725012853   11   11    3    3
 0.32784971077378   11   11    4    4
 -0.08284092472455967   11   11    5    2
 0.3262221886923237   11   11    5    5
 -0.08573064488946464   11   11    6    3
 0.3440655506247258   11   11    6    6
 0.06750457044759797   11   11    7    1
 0.3362144710079047   11   11    7    7
 -0.09453230563532654   11   11    8    4
 0.3462167485366295   11   11    8    8
 -0.01371702546463126   11   11    9    1
 -0.001558834255155975   11   11    9    7
 0.4159925086463025   11   11    9    9
 -0.0205755204334324   11   11   10    1
 -0.01245574243988359   11   11   10    7
 -0.002809660259411026   11   11   10    9
 0.4133841700211189   11   11   10   10
 0.4332445347018646   11   11   11   11
 -0.01493124308715341   12    1    2    1
 0.007464416421257664   12    1    4    3
 0.007621381006092199   12    1    5    1
 0.002098355565308513   12    1    6    4
 -0.007943288894791588   12    1    7    2
 0.008680266994074386   12    1    7    5
 -0.0005069716201069956   12    1    8    3
 0.0008389101615784822   12    1    8    6
 -0.01530906810637451   12    1    9    2
 0.00557579094160018   12    1    9    5
 0.03470725779118861   12    1   10    2
 -0.0197404892162543   12    1   10    5
 0.03805846364899785   12    1   12    1
 -0.02482841705390756   12    2    1    1
 -0.02375287513789513   12    2    2    2
 0.006170252813578433   12    2    3    3
 0.005274346599022861   12    2    4    4
 0.009568296295802515   12    2    5    2
 -0.0151700818818414   12    2    5    5
 0.007048683732059111   12    2    6    3
 -0.002100327936560699   12    2    6    6
 -0.01148073529642661   12    2    7    1
 -0.01389450687754521   12    2    7    7
 0.003434544647575426   12    2    8    4
 -0.00232657578963915   12    2    8    8
 -0.01202457142247382   12    2    9    1
 -0.005405393672958246   12    2    9    7
 -0.0218385675450349   12    2    9    9
 0.04266997959055864   12    2   10    1
 0.01791420523668912   12    2   10    7
 0.005867776820907535   12    2   10    9
 -0.01258263610534192   12    2   10   10
 -0.01746859661316542   12    2   11   11
 0.04435953704753664   12    2   12    2
 0.02786883446666815   12    3    3    2
 0.02661401264303652   12    3    4    1
 -0.009202466964114859   12    3    5    3
 -0.01425393226411372   12    3    6    2
 0.02194786025881222   12    3    6    5
 0.003229033511596605   12    3    7    4
 -0.01832995315463938   12    3    8    1
 -0.02153034521634293   12    3    8    7
 0.00356045755149308   12    3    9    4
 0.001033235560200952   12    3    9    8
 0.03161602460063094   12    3   10    4
 -0.02346645114922997   12    3   10    8
 0.03130099400409293   12    3   12    3
 0.04667300428081358   12    4    3    1
 0.04259955023177708   12    4    4    2
 -0.006330262175127531   12    4    5    4
 -0.01851767524111929   12    4    6    1
 0.00124590424926855   12    4    7    3
 -0.03741810138654063   12    4    7    6
 -0.02341910834426333   12    4    8    2
 0.03674394099848326   12    4    8    5
 -0.0117181364594904   12    4    9    3
 0.00375303021801327   12    4    9    6
 0.04110226894667844   12    4   10    3
 -0.02089062510788613   12    4   10    6
 0.03951915045717793   12    4   12    4
 0.01647748093581126   12    5    1    1
 0.01371486881667025   12    5    2    2
 0.0007606809624485593   12    5    3    3
 0.0005859872711391443   12    5    4    4
 -0.00703857644328439   12    5    5    2
 0.007928900797694247   12    5    5    5
 -0.002331851470706939   12    5    6    3
 0.003612232247736375   12    5    6    6
 0.006956369188217508   12    5    7    1
 0.008890926497828125   12    5    7    7
 -0.0009570304857304959   12    5    8    4
 0.002430380159461549   12    5    8    8
 0.004215142767918518   12    5    9    1
 0.002999161513774339   12    5    9    7
 0.0127202976843575   12    5    9    9
 -0.02427371559785571   12    5   10    1
 -0.01308860671220407   12    5   10    7
 -0.001272548088334115   12    5   10    9
 0.01331911281520937   12    5   10   10
 0.01195037758514029   12    5   11   11
 -0.02360288603244894   12    5   12    2
 0.01599324959917878   12    5   12    5
 -0.01183204066976   12    6    3    2
 -0.01119801999189191   12    6    4    1
 0.006587730299058199   12    6    5    3
 0.008588454703671528   12    6    6    2
 -0.01055054341138901   12    6    6    5
 -0.004281498076720699   12    6    7    4
 0.01020999191405623   12    6    8    1
 0.01043654099000026   12    6    8    7
 -0.0004467881630463774   12    6    9    4
 -0.001545490919131   12    6    9    8
 -0.01637107035616928   12    6   10    4
 0.01575516307712713   12    6   10    8
 -0.0164795973737295   12    6   12    3
 0.01278355498453355   12    6   12    6
 -0.01327805463738845   12    7    2    1
 -0.003533608077643697   12    7    4    3
 0.006241151159520605   12    7    5    1
 0.001062091223779186   12    7    6    4
 -0.005538733569399296   12    7    7    2
 0.007925205070551453   12    7    7    5
 0.001246618471826163   12    7    8    3
 -0.004384710710094837   12    7    8    6
 -0.009800864347067442   12    7    9    2
 0.003458746915434709   12    7    9    5
 0.01538991091872985   12    7   10    2
 -0.01168391853779774   12    7   10    5
 0.01790184274345789   12    7   12    1
 0.01214090903183895   12    7   12    7
 -0.02966470034225072   12    8    3    1
 -0.0259201428284496   12    8    4    2
 0.007797525973991417   12    8    5    4
 0.01498437288112765   12    8    6    1
 -0.004675064136417838   12    8    7    3
 0.02410101230051214   12    8    7    6
 0.01808254387159425   12    8    8    2
 -0.02447696649358489   12    8    8    5
 0.009958647134002043   12    8    9    3
 -0.004294403638901637   12    8    9    6
 -0.02845823086227622   12    8   10    3
 0.01815755907576011   12    8   10    6
 -0.02714675376428254   12    8   12    4
 0.02268396925751352   12    8   12    8
 -0.03462366766162919   12    9    2    1
 -0.02121991932486763   12    9    4    3
 0.01486226623296605   12    9    5    1
 0.01200732726967355   12    9    6    4
 -0.01254663327100369   12    9    7    2
 0.0247025571088488   12    9    7    5
 0.01615011410045699   12    9    8    3
 -0.02509109009886144   12    9    8    6
 -0.01813218834027737   12    9    9    2
 0.002065623695562755   12    9    9    5
 0.008062185327873056   12    9   10    2
 -0.002982181572470906   12    9   10    5
 0.01061805022075016   12    9   12    1
 0.006895241511121412   12    9   12    7
 0.02510112370632736   12    9   12    9
 0.1210219231168886   12   10    2    1
 0.09553263100907809   12   10    4    3
 -0.05232534366726622   12   10    5    1
 -0.04234075531023487   12   10    6    4
 0.0402595435194463   12   10    7    2
 -0.09036122639594336   12   10    7    5
 -0.05868764251719447   12   10    8    3
 0.1014898966132835   12   10    8    6
 0.05534022774956623   12   10    9    2
 -0.005506204752890866   12   10    9    5
 0.00956417947082127   12   10   10    2
 5.31339299208128e-05   12   10   10    5
 -0.007261551536669465   12   10   12    1
 -0.01486743269653649   12   10   12    7
 -0.03934213649494519   12   10   12    9
 0.159577852500983   12   10   12   10
 0.0003689858430234215   12   11   11    2
 -0.0001995345163748221   12   11   11    5
 0.01474288832367829   12   11   12   11
 0.4132758660710838   12   12    1    1
 0.391100188793392   12   12    2    2
 0.3656546450033363   12   12    3    3
 0.3344296576196124   12   12    4    4
 -0.0892196959522461   12   12    5    2
 0.3303287099424295   12   12    5    5
 -0.08685356616906266   12   12    6    3
 0.3499254464491118   12   12    6    6
 0.07495404040100427   12   12    7    1
 0.3377562430299579   12   12    7    7
 -0.09710587901470659   12   12    8    4
 0.3529571918920147   12   12    8    8
 -0.009399954762443466   12   12    9    1
 0.0009278389083057521   12   12    9    7
 0.4245619744822376   12   12    9    9
 -0.01869906376215277   12   12   10    1
 -0.0176954815795925   12   12   10    7
 -0.01103634704003966   12   12   10    9
 0.4488228748559069   12   12   10   10
 0.4147627648572298   12   12   11   11
 -0.01768665505836151   12   12   12    2
 0.01500373019861563   12   12   12    5
 0.4545511442261391   12   12   12   12
 -0.01198467799523264   13    1    3    1
 0.005674140194116972   13    1    4    2
 0.004737034354281662   13    1    5    4
 0.006663954753111875   13    1    6    1
 -0.003422285703630405   13    1    7    3
 0.006450628817574032   13    1    7    6
 0.001312887371605258   13    1    8    2
 -0.0007598499026765237   13    1    8    5
 0.03355352060236633   13    1    9    3
 -0.02262366110374847   13    1    9    6
 0.003386155241007309   13    1   10    3
 -0.004607911700194027   13    1   10    6
 -0.0006696519918921175   13    1   12    4
 0.002204336366995848   13    1   12    8
 0.0367745981765065   13    1   13    1
 0.02367578499858449   13    2    3    2
 0.02295357369422179   13    2    4    1
 -0.00443232940725314   13    2    5    3
 -0.01340705662700903   13    2    6    2
 0.01793269960166854   13    2    6    5
 0.002216692900411819   13    2    7    4
 -0.01437550590174837   13    2    8    1
 -0.01849472012861177   13    2    8    7
 0.0232269213855499   13    2    9    4
 -0.01760269867329754   13    2    9    8
 0.01908557851024125   13    2   10    4
 -0.01225257418896024   13    2   10    8
 0.01132504335131515   13    2   12    3
 -0.00445791768467747   13    2   12    6
 0.03096397015428774   13    2   13    2
 -0.02481347514659214   13    3    1    1
 -0.0004099713094180926   13    3    2    2
 -0.02127376690081881   13    3    3    3
 0.002004938439958246   13    3    4    4
 0.01099205405935597   13    3    5    2
 -0.003845639257715997   13    3    5    5
 0.008272050014586427   13    3    6    3
 -0.0158814060086898   13    3    6    6
 -0.007929625704287522   13    3    7    1
 -0.01294093067470427   13    3    7    7
 0.006426856131991867   13    3    8    4
 -0.006302995178650783   13    3    8    8
 0.04097872580346667   13    3    9    1
 0.01349276389479314   13    3    9    7
 -0.02229159803632429   13    3    9    9
 0.01077904441467069   13    3   10    1
 0.004006397841824334   13    3   10    7
 0.007000444155653063   13    3   10    9
 -0.0137457954152273   13    3   10   10
 -0.01728882157501734   13    3   11   11
 0.00100410147867203   13    3   12    2
 -0.001325601373524494   13    3   12    5
 -0.01398713065366046   13    3   12   12
 0.03874228326097181   13    3   13    3
 0.04473561753686079   13    4    2    1
 0.03837971274242848   13    4    4    3
 -0.009244132906026927   13    4    5    1
 -0.0108338644248015   13    4    6    4
 0.006530662596261846   13    4    7    2
 -0.03427910910368528   13    4    7    5
 -0.01532652629505651   13    4    8    3
 0.03618188362176211   13    4    8    6
 0.03944424273790559   13    4    9    2
 -0.008819856282137007   13    4    9    5
 0.01108221956393019   13    4   10    2
 -0.004240242199101234   13    4   10    5
 -0.0002590703744195757   13    4   12    1
 -0.003132494645730597   13    4   12    7
 -0.007438842112123795   13    4   12    9
 0.04716633895146383   13    4   12   10
 0.03602352427358254   13    4   13    4
 -0.00186718526557044   13    5    3    2
 -0.001815366406392842   13    5    4    1
 0.00136904545862713   13    5    5    3